 ******************************************************************
 *************  stfc/ccp5  program  library  package  ** D ********
 *************  daresbury laboratory general purpose  *** L *******
 **         **  classical molecular dynamics program  **** \ ******
 ** DL_POLY **  authors:   i.t.todorov   &   w.smith  ***** P *****
 **         **  version:  4.06      /      july 2014  ****** O ****
 *************  execution on           16    node(s)  ******* L ***
 *************  contributors' list:                   ******** Y **
 *************  ------------------------------------  *************
 *************  i.j.bush, r.davidchak,                *************
 *************  m.a.seaton, a.v.brukhno               *************
 ******************************************************************

 ******************************************************************
 ****  ~~~~~~~~~~~~~~~~~~~~~~~~~~~~~~~~~~~~~~~~~~~~~~~~~~~~~~  ****
 ****  Please do cite `J. Mater. Chem.', 16, 1911-1918 (2006)  ****
 ****  ^^^^^^^^^^^^^^^^^^^^^^^^^^^^^^^^^^^^^^^^^^^^^^^^^^^^^^  ****
 ****  when publishing research data obtained using DL_POLY_4  ****
 ****  ^^^^^^^^^^^^^^^^^^^^^^^^^^^^^^^^^^^^^^^^^^^^^^^^^^^^^^^ ****
 ******************************************************************


 I/O read method: parallel by using MPI-I/O (assumed)
 I/O readers (assumed)                   8
 I/O read batch size (assumed)     2000000
 I/O read buffer size (assumed)      20000
 I/O parallel read error checking off (assumed)

 I/O write method: parallel by using MPI-I/O (assumed)
 I/O write type: data sorting on (assumed)
 I/O writers (assumed)                  16
 I/O write batch size (assumed)    2000000
 I/O write buffer size (assumed)     20000
 I/O parallel write error checking off (assumed)


 node/domain decomposition (x,y,z):      4     2     2

 link-cell decomposition 1 (x,y,z):      7     8     9

 *** pre-scanning stage (set_bounds) DONE ***

 time elapsed since job start:        1.734 sec

 **********************************************************************************************************************************
 **********************************************************************************************************************************
 **********************************************************************************************************************************
 ************************     dmimcl rigid                                                                 ************************
 **********************************************************************************************************************************
 **********************************************************************************************************************************
 **********************************************************************************************************************************


 SIMULATION CONTROL PARAMETERS

 simulation temperature (K)          4.0000E+02

 simulation pressure (katms)         1.0000E-03

 real space cutoff (Angs)            9.0000E+00

 vdw cutoff (Angs)                   8.0000E+00

 Electrostatics : Smooth Particle Mesh Ewald
 Ewald sum precision                 1.0000E-05
 Ewald convergence parameter (A^-1)  3.1817E-01
 Ewald kmax1 kmax2 kmax3   (x2)   160   92   94
 DaFT adjusted kmax values (x2)   160   96   96
 B-spline interpolation order            8

 Integration : Velocity Verlet
 Ensemble : NPT isotropic Berendsen
 thermostat relaxation time (ps)     1.0000E-01
 barostat relaxation time   (ps)     2.0000E+00

 selected number of timesteps          750

 equilibration period (steps)          300

 unscaled restart requested (starting a new simulation)

 temperature scaling on (during equilibration)
 temperature scaling interval           10

 data printing interval (steps)         50

 statistics file interval               10

 Extended Coulombic eXclusion : NO

 variable simulation timestep (ps)   2.0000E-03

 controls for variable timestep
 minimum distance Dmin (Angs)        3.0000E-02
 maximum distance Dmax (Angs)        1.0000E-01

 data dumping interval (steps)        1000

 allocated job run time   (s)        3.6000E+03

 allocated job close time (s)        2.0000E+01


 SYSTEM SPECIFICATION

 energy units = kJ/mol


 number of molecular types               2


 molecular species type                  1

 name of species:             Imidazolium                             

 number of molecules                 32256

 number of atoms/sites                  10

 atomic characteristics:

               site    name             mass         charge      repeat      freeze

                  1    N             14.000000      -0.267000         2         0
                  3    C1            12.000000       0.407000         1         0
                  4    C2            12.000000       0.105000         2         0
                  6    C4            15.000000       0.316000         2         0
                  8    H1             1.000000       0.097000         1         0
                  9    H2             1.000000       0.094000         2         0


 number of rigid bodies                  1

 rigid body details:

                  unit      size            indices

                     1        10         1         2         3         4         5         6         7         8         9        10



 molecular species type                  2

 name of species:             Chloride                                

 number of molecules                 32256

 number of atoms/sites                   1

 atomic characteristics:

               site    name             mass         charge      repeat      freeze

                  1    Cl            31.000000      -1.000000         1         0


 total number of molecules           64512

 total number of sites                  11


 number of specified vdw potentials               28

       pair     atom 1  atom 2     key                              parameters

          1     N       N          lj               0.711300            3.250000            0.000000            0.000000            0.000000
          2     N       C1         lj               0.505891            3.324850            0.000000            0.000000            0.000000
          3     N       C2         lj               0.505891            3.324850            0.000000            0.000000            0.000000
          4     N       C4         lj               0.731902            3.555000            0.000000            0.000000            0.000000
          5     N       H1         lj               0.211352            2.835750            0.000000            0.000000            0.000000
          6     N       H2         lj               0.211352            2.880300            0.000000            0.000000            0.000000
          7     N       Cl         lj               0.769000            3.825500            0.000000            0.000000            0.000000
          8     C1      C1         lj               0.359800            3.399700            0.000000            0.000000            0.000000
          9     C1      C2         lj               0.359800            3.399700            0.000000            0.000000            0.000000
         10     C1      C4         lj               0.520500            3.630000            0.000000            0.000000            0.000000
         11     C1      H1         lj               0.150318            2.910600            0.000000            0.000000            0.000000
         12     C1      H2         lj               0.150318            2.955150            0.000000            0.000000            0.000000
         13     C1      Cl         lj               0.546900            3.900400            0.000000            0.000000            0.000000
         14     C2      C2         lj               0.359800            3.399700            0.000000            0.000000            0.000000
         15     C2      C4         lj               0.520500            3.630000            0.000000            0.000000            0.000000
         16     C2      H1         lj               0.150318            2.910600            0.000000            0.000000            0.000000
         17     C2      H2         lj               0.150318            2.955150            0.000000            0.000000            0.000000
         18     C2      Cl         lj               0.546900            3.900400            0.000000            0.000000            0.000000
         19     C4      C4         lj               0.753100            3.860000            0.000000            0.000000            0.000000
         20     C4      H1         lj               0.217500            3.140800            0.000000            0.000000            0.000000
         21     C4      H2         lj               0.217500            3.185300            0.000000            0.000000            0.000000
         22     C4      Cl         lj               0.791300            4.130500            0.000000            0.000000            0.000000
         23     H1      H1         lj               0.062800            2.421500            0.000000            0.000000            0.000000
         24     H1      H2         lj               0.062800            2.466050            0.000000            0.000000            0.000000
         25     H1      Cl         lj               0.228500            3.411300            0.000000            0.000000            0.000000
         26     H2      H2         lj               0.062800            2.510600            0.000000            0.000000            0.000000
         27     H2      Cl         lj               0.228500            3.455800            0.000000            0.000000            0.000000
         28     Cl      Cl         lj               0.831400            4.401000            0.000000            0.000000            0.000000

 configuration file name: 

          ionic liquid dimethylimidazolium chloride: courtesy of Carlos Pinilla   


 selected image convention               2


 simulation cell vectors

      277.8438415528        0.0000000000        0.0000000000
        0.0000000000      160.4132080080        0.0000000000
        0.0000000000        0.0000000000      164.2079772948


 system volume            7318720.31059    

 *** all reading and connectivity checks DONE ***

 time elapsed since job start:        1.804 sec


 long-range correction for: vdw energy    -0.240520E+06
                          : vdw pressure  -0.107300E+01

 *** initialisation and haloing DONE ***

 time elapsed since job start:        1.812 sec


 summary of rigid body set up

  in molecule     1

  type :: members :: frozen status :: unfrozen mass :: translational DoF :: rotational DoF
                rotational inertia:        x                   y                   z      

    1      10              0             97.000000             3                   3
                                    298.4546466053      231.6157454900       66.8389011153
          member  ::   coordinates:        x                   y                   z      
            1                        -0.0000003679       -0.1135863973       -1.0806846677
            2                         0.0000005415       -0.1135838142        1.0806828754
            3                         0.0000009648       -0.8741836855       -0.0000023101
            4                        -0.0000004802        1.2102155988        0.6741649501
            5                         0.0000001547        1.2102117658       -0.6741672952
            6                        -0.0000003011       -0.5823541230       -2.4780289216
            7                        -0.0000005331       -0.5823546090        2.4780341446
            8                        -0.0000007447       -1.9493027477        0.0000038542
            9                         0.0000015779        2.0227001213        1.3762207376
           10                         0.0000015784        2.0226924176       -1.3762219821

  in molecule     2

  no rigid bodies specified


 //==============================================================\\
 ||                                                              ||
 ||           SUMMARY  OF  TOPOLOGICAL  DECOMPOSITION            ||
 ||                                                              ||
 ||--------------------------------------------------------------||
 ||  INTERACTION  OR  TYPE  |  GRAND TOTAL | Fully/Partly FROZEN ||
 ||-------------------------+--------------+---------------------||
 ||  all particles/sites    |      354816  |  F            0     ||
 ||  free particles         |       32256  |  F            0     ||
 ||  core-shell units       |           0  |  P            0     ||
 ||  constraint bond units  |           0  |  F            0     ||
 ||  PMF units              |           0  |  P         NONE     ||
 ||  rigid body units       |       32256  |  F            0     ||
 ||  tethered atom units    |           0  |  F            0     ||
 ||  chemical bond units    |           0  |  F            0     ||
 ||  bond angle units       |           0  |  F            0     ||
 ||  dihedral angle units   |           0  |  F            0     ||
 ||  inversion angle units  |           0  |  F            0     ||
 \\==============================================================//


 *** bookkeeping DONE ***

 time elapsed since job start:        1.896 sec


 degrees of freedom break-down list
 ----------------------------------
 free particles               96768
 centre of mass                  -3
 non-periodicity                  0
 frozen free particles            0
 shell-pseudo                     0
 constrained                      0
 RB translational             96768
 RB rotational                96768
 ----------------------------------
 total (real)                290301

 *** temperature setting DONE ***

 time elapsed since job start:        1.898 sec


 sample of starting configuration on node zero

        i       x(i)        y(i)        z(i)       vx(i)       vy(i)       vz(i)


        1 -9.6819E+01 -4.8156E+01 -8.1678E+01  1.9205E+00 -6.7319E-01  7.8967E-01
     1129 -9.9980E+01 -4.9604E+01 -7.8907E+01 -5.7767E-01 -1.8733E+00 -1.6627E+00
     2267 -1.1835E+02 -6.9316E+01 -8.0977E+01 -3.0548E-01  2.3297E+00 -2.8444E+00
     3425 -1.3556E+02 -7.0759E+01 -4.8671E+01  1.7061E-01 -1.0610E+00  9.0410E-01
     4648 -1.3239E+02 -5.0102E+01 -6.5608E+01  2.4353E+00 -3.5246E+00 -2.6067E+00
    20827 -1.1879E+02 -2.6230E+01 -7.7969E+01 -1.0775E+01 -2.1113E-01  4.6771E+00
    21951 -1.1019E+02 -1.8679E+01 -7.1371E+01 -6.9962E-01 -3.7447E+00 -1.1792E+00
    23101 -1.2948E+02 -3.3437E+01 -5.2888E+01 -1.4602E+00  6.4010E+00 -1.0405E+00
    24262 -1.1927E+02 -8.6555E+00 -8.1591E+01  3.9100E+00 -2.1058E+00 -1.5200E-01
    65519 -1.2935E+02 -8.0027E+01 -5.1083E+01  3.3392E+00  7.7072E-01 -1.2162E+00
    81777 -1.2105E+02 -6.1145E+01 -3.8378E+01 -7.0378E+00  2.6963E+00 -5.7054E+00
    82918 -1.1147E+02 -5.7853E+01 -1.5589E+01  6.2346E-01 -5.3543E-01 -1.5223E+00
    84078 -1.1689E+02 -7.4487E+01 -3.1588E+01  1.5100E+00  6.1214E+00 -3.6286E+00
    85298 -1.2259E+02 -7.1894E+01 -2.3131E+00  2.1708E+00 -1.3808E+00 -4.5664E+00
   101491 -1.1504E+02 -2.7771E+01 -7.0769E+00 -3.7352E+00  1.0118E+00  2.1161E-01
   102621 -1.1565E+02 -3.4736E+01 -2.7810E+01  2.8995E-01 -3.2568E+00  1.1729E+00
   103766 -8.5666E+01 -8.5338E+00 -3.0744E+01  9.5591E-01 -1.1893E+00 -1.2023E+00
   104925 -8.8174E+01 -7.3076E-01 -3.9138E+01 -3.7313E+00  7.5497E-01 -2.2667E+00
   163884 -1.3070E+02 -7.6314E+01 -1.0959E-01 -1.7252E+00 -1.1738E+00 -6.7898E-01
   324984 -8.2484E+01 -5.0092E+00 -7.8161E+01  2.7524E+00 -4.7578E+00 -2.8342E+00



 time elapsed since job start:        1.898 sec

 forces evaluated at (re)start for VV integration...

 ----------------------------------------------------------------------------------------------------------------------------------

     step     eng_tot    temp_tot     eng_cfg     eng_src     eng_cou     eng_bnd     eng_ang     eng_dih     eng_tet
 time(ps)      eng_pv    temp_rot     vir_cfg     vir_src     vir_cou     vir_bnd     vir_ang     vir_con     vir_tet
 cpu  (s)      volume    temp_shl     eng_shl     vir_shl       alpha        beta       gamma     vir_pmf       press

 ----------------------------------------------------------------------------------------------------------------------------------
        0 -1.5836E+07  4.0000E+02 -1.6319E+07 -8.6657E+05 -1.5453E+07  0.0000E+00  0.0000E+00  0.0000E+00  0.0000E+00
  0.00000 -1.5746E+07  4.0000E+02  3.7278E+05 -9.9907E+06  1.5435E+07  0.0000E+00  0.0000E+00  0.0000E+00  0.0000E+00
      2.2  7.3187E+06  0.0000E+00  0.0000E+00  0.0000E+00  9.0000E+01  9.0000E+01  9.0000E+01  0.0000E+00  2.0218E-01

  rolling  0.0000E+00  0.0000E+00  0.0000E+00  0.0000E+00  0.0000E+00  0.0000E+00  0.0000E+00  0.0000E+00  0.0000E+00
 averages  0.0000E+00  0.0000E+00  0.0000E+00  0.0000E+00  0.0000E+00  0.0000E+00  0.0000E+00  0.0000E+00  0.0000E+00
           0.0000E+00  0.0000E+00  0.0000E+00  0.0000E+00  0.0000E+00  0.0000E+00  0.0000E+00  0.0000E+00  0.0000E+00
 ----------------------------------------------------------------------------------------------------------------------------------
 ----------------------------------------------------------------------------------------------------------------------------------

     step     eng_tot    temp_tot     eng_cfg     eng_src     eng_cou     eng_bnd     eng_ang     eng_dih     eng_tet
 time(ps)      eng_pv    temp_rot     vir_cfg     vir_src     vir_cou     vir_bnd     vir_ang     vir_con     vir_tet
 cpu  (s)      volume    temp_shl     eng_shl     vir_shl       alpha        beta       gamma     vir_pmf       press

 ----------------------------------------------------------------------------------------------------------------------------------
        1 -1.5836E+07  4.0002E+02 -1.6319E+07 -8.6668E+05 -1.5453E+07  0.0000E+00  0.0000E+00  0.0000E+00  0.0000E+00
  0.00200 -1.5747E+07  4.0013E+02  3.7536E+05 -9.9889E+06  1.5435E+07  0.0000E+00  0.0000E+00  0.0000E+00  0.0000E+00
      2.7  7.3188E+06  0.0000E+00  0.0000E+00  0.0000E+00  9.0000E+01  9.0000E+01  9.0000E+01  0.0000E+00  2.0020E-01

  rolling -1.5836E+07  4.0002E+02 -1.6319E+07 -8.6668E+05 -1.5453E+07  0.0000E+00  0.0000E+00  0.0000E+00  0.0000E+00
 averages -1.5747E+07  4.0013E+02  3.7536E+05 -9.9889E+06  1.5435E+07  0.0000E+00  0.0000E+00  0.0000E+00  0.0000E+00
           7.3188E+06  0.0000E+00  0.0000E+00  0.0000E+00  9.0000E+01  9.0000E+01  9.0000E+01  0.0000E+00  2.0020E-01
 ----------------------------------------------------------------------------------------------------------------------------------
       50 -1.5853E+07  4.0000E+02 -1.6336E+07 -8.9079E+05 -1.5445E+07  0.0000E+00  0.0000E+00  0.0000E+00  0.0000E+00
  0.10000 -1.5921E+07  4.0000E+02  8.4778E+05 -9.6375E+06  1.5428E+07  0.0000E+00  0.0000E+00  0.0000E+00  0.0000E+00
     24.4  7.3186E+06  0.0000E+00  0.0000E+00  0.0000E+00  9.0000E+01  9.0000E+01  9.0000E+01  0.0000E+00 -1.5236E-01

  rolling -1.5844E+07  4.0116E+02 -1.6328E+07 -8.8097E+05 -1.5447E+07  0.0000E+00  0.0000E+00  0.0000E+00  0.0000E+00
 averages -1.5849E+07  4.0173E+02  6.6036E+05 -9.7818E+06  1.5430E+07  0.0000E+00  0.0000E+00  0.0000E+00  0.0000E+00
           7.3193E+06  0.0000E+00  0.0000E+00  0.0000E+00  9.0000E+01  9.0000E+01  9.0000E+01  0.0000E+00 -1.1420E-02
 ----------------------------------------------------------------------------------------------------------------------------------
      100 -1.5856E+07  4.0000E+02 -1.6339E+07 -8.8411E+05 -1.5454E+07  0.0000E+00  0.0000E+00  0.0000E+00  0.0000E+00
  0.20000 -1.5894E+07  4.0000E+02  7.5879E+05 -9.7139E+06  1.5437E+07  0.0000E+00  0.0000E+00  0.0000E+00  0.0000E+00
     46.7  7.3169E+06  0.0000E+00  0.0000E+00  0.0000E+00  9.0000E+01  9.0000E+01  9.0000E+01  0.0000E+00 -8.5964E-02

  rolling -1.5849E+07  4.0067E+02 -1.6332E+07 -8.8309E+05 -1.5449E+07  0.0000E+00  0.0000E+00  0.0000E+00  0.0000E+00
 averages -1.5874E+07  4.0162E+02  7.1911E+05 -9.7439E+06  1.5432E+07  0.0000E+00  0.0000E+00  0.0000E+00  0.0000E+00
           7.3185E+06  0.0000E+00  0.0000E+00  0.0000E+00  9.0000E+01  9.0000E+01  9.0000E+01  0.0000E+00 -5.6104E-02
 ----------------------------------------------------------------------------------------------------------------------------------
      150 -1.5852E+07  4.0000E+02 -1.6335E+07 -8.8412E+05 -1.5451E+07  0.0000E+00  0.0000E+00  0.0000E+00  0.0000E+00
  0.30000 -1.5878E+07  4.0000E+02  7.2120E+05 -9.7252E+06  1.5433E+07  0.0000E+00  0.0000E+00  0.0000E+00  0.0000E+00
     69.3  7.3159E+06  0.0000E+00  0.0000E+00  0.0000E+00  9.0000E+01  9.0000E+01  9.0000E+01  0.0000E+00 -5.7905E-02

  rolling -1.5854E+07  3.9997E+02 -1.6337E+07 -8.8441E+05 -1.5452E+07  0.0000E+00  0.0000E+00  0.0000E+00  0.0000E+00
 averages -1.5891E+07  4.0071E+02  7.5257E+05 -9.7148E+06  1.5435E+07  0.0000E+00  0.0000E+00  0.0000E+00  0.0000E+00
           7.3170E+06  0.0000E+00  0.0000E+00  0.0000E+00  9.0000E+01  9.0000E+01  9.0000E+01  0.0000E+00 -8.1793E-02
 ----------------------------------------------------------------------------------------------------------------------------------
      200 -1.5853E+07  4.0000E+02 -1.6336E+07 -8.8377E+05 -1.5452E+07  0.0000E+00  0.0000E+00  0.0000E+00  0.0000E+00
  0.40000 -1.5876E+07  4.0000E+02  7.1219E+05 -9.7305E+06  1.5434E+07  0.0000E+00  0.0000E+00  0.0000E+00  0.0000E+00
     92.0  7.3150E+06  0.0000E+00  0.0000E+00  0.0000E+00  9.0000E+01  9.0000E+01  9.0000E+01  0.0000E+00 -5.1186E-02

  rolling -1.5853E+07  3.9990E+02 -1.6336E+07 -8.8369E+05 -1.5452E+07  0.0000E+00  0.0000E+00  0.0000E+00  0.0000E+00
 averages -1.5878E+07  4.0037E+02  7.1950E+05 -9.7278E+06  1.5434E+07  0.0000E+00  0.0000E+00  0.0000E+00  0.0000E+00
           7.3159E+06  0.0000E+00  0.0000E+00  0.0000E+00  9.0000E+01  9.0000E+01  9.0000E+01  0.0000E+00 -5.7045E-02
 ----------------------------------------------------------------------------------------------------------------------------------
      250 -1.5853E+07  4.0000E+02 -1.6336E+07 -8.8049E+05 -1.5455E+07  0.0000E+00  0.0000E+00  0.0000E+00  0.0000E+00
  0.50000 -1.5856E+07  4.0000E+02  6.5121E+05 -9.7772E+06  1.5438E+07  0.0000E+00  0.0000E+00  0.0000E+00  0.0000E+00
    114.8  7.3144E+06  0.0000E+00  0.0000E+00  0.0000E+00  9.0000E+01  9.0000E+01  9.0000E+01  0.0000E+00 -5.6422E-03

  rolling -1.5853E+07  4.0003E+02 -1.6335E+07 -8.8300E+05 -1.5452E+07  0.0000E+00  0.0000E+00  0.0000E+00  0.0000E+00
 averages -1.5871E+07  4.0029E+02  7.0020E+05 -9.7426E+06  1.5435E+07  0.0000E+00  0.0000E+00  0.0000E+00  0.0000E+00
           7.3150E+06  0.0000E+00  0.0000E+00  0.0000E+00  9.0000E+01  9.0000E+01  9.0000E+01  0.0000E+00 -4.2351E-02
 ----------------------------------------------------------------------------------------------------------------------------------
      300 -1.5852E+07  4.0000E+02 -1.6335E+07 -8.8114E+05 -1.5453E+07  0.0000E+00  0.0000E+00  0.0000E+00  0.0000E+00
  0.60000 -1.5853E+07  4.0000E+02  6.4744E+05 -9.7688E+06  1.5436E+07  0.0000E+00  0.0000E+00  0.0000E+00  0.0000E+00
    137.5  7.3143E+06  0.0000E+00  0.0000E+00  0.0000E+00  9.0000E+01  9.0000E+01  9.0000E+01  0.0000E+00 -2.8258E-03

  rolling -1.5853E+07  3.9998E+02 -1.6336E+07 -8.8163E+05 -1.5454E+07  0.0000E+00  0.0000E+00  0.0000E+00  0.0000E+00
 averages -1.5862E+07  3.9961E+02  6.6918E+05 -9.7615E+06  1.5437E+07  0.0000E+00  0.0000E+00  0.0000E+00  0.0000E+00
           7.3145E+06  0.0000E+00  0.0000E+00  0.0000E+00  9.0000E+01  9.0000E+01  9.0000E+01  0.0000E+00 -1.8873E-02
 ----------------------------------------------------------------------------------------------------------------------------------


 switching off temperature scaling at step 300


 ----------------------------------------------------------------------------------------------------------------------------------
      350 -1.5852E+07  4.0093E+02 -1.6336E+07 -8.8268E+05 -1.5453E+07  0.0000E+00  0.0000E+00  0.0000E+00  0.0000E+00
  0.70000 -1.5868E+07  4.0183E+02  6.9260E+05 -9.7470E+06  1.5436E+07  0.0000E+00  0.0000E+00  0.0000E+00  0.0000E+00
    160.4  7.3140E+06  0.0000E+00  0.0000E+00  0.0000E+00  9.0000E+01  9.0000E+01  9.0000E+01  0.0000E+00 -3.5972E-02

  rolling -1.5852E+07  4.0006E+02 -1.6335E+07 -8.8146E+05 -1.5454E+07  0.0000E+00  0.0000E+00  0.0000E+00  0.0000E+00
 averages -1.5858E+07  3.9991E+02  6.5973E+05 -9.7642E+06  1.5436E+07  0.0000E+00  0.0000E+00  0.0000E+00  0.0000E+00
           7.3143E+06  0.0000E+00  0.0000E+00  0.0000E+00  9.0000E+01  9.0000E+01  9.0000E+01  0.0000E+00 -1.1842E-02
 ----------------------------------------------------------------------------------------------------------------------------------
 ----------------------------------------------------------------------------------------------------------------------------------

     step     eng_tot    temp_tot     eng_cfg     eng_src     eng_cou     eng_bnd     eng_ang     eng_dih     eng_tet
 time(ps)      eng_pv    temp_rot     vir_cfg     vir_src     vir_cou     vir_bnd     vir_ang     vir_con     vir_tet
 cpu  (s)      volume    temp_shl     eng_shl     vir_shl       alpha        beta       gamma     vir_pmf       press

 ----------------------------------------------------------------------------------------------------------------------------------
      400 -1.5852E+07  3.9955E+02 -1.6334E+07 -8.8058E+05 -1.5454E+07  0.0000E+00  0.0000E+00  0.0000E+00  0.0000E+00
  0.80000 -1.5858E+07  3.9965E+02  6.6059E+05 -9.7802E+06  1.5436E+07  0.0000E+00  0.0000E+00  0.0000E+00  0.0000E+00
    183.2  7.3136E+06  0.0000E+00  0.0000E+00  0.0000E+00  9.0000E+01  9.0000E+01  9.0000E+01  0.0000E+00 -1.3259E-02

  rolling -1.5852E+07  4.0020E+02 -1.6335E+07 -8.8175E+05 -1.5453E+07  0.0000E+00  0.0000E+00  0.0000E+00  0.0000E+00
 averages -1.5861E+07  4.0043E+02  6.7193E+05 -9.7609E+06  1.5436E+07  0.0000E+00  0.0000E+00  0.0000E+00  0.0000E+00
           7.3140E+06  0.0000E+00  0.0000E+00  0.0000E+00  9.0000E+01  9.0000E+01  9.0000E+01  0.0000E+00 -2.1017E-02
 ----------------------------------------------------------------------------------------------------------------------------------
      450 -1.5852E+07  3.9996E+02 -1.6334E+07 -8.8256E+05 -1.5452E+07  0.0000E+00  0.0000E+00  0.0000E+00  0.0000E+00
  0.90000 -1.5864E+07  4.0201E+02  6.7711E+05 -9.7564E+06  1.5435E+07  0.0000E+00  0.0000E+00  0.0000E+00  0.0000E+00
    206.2  7.3133E+06  0.0000E+00  0.0000E+00  0.0000E+00  9.0000E+01  9.0000E+01  9.0000E+01  0.0000E+00 -2.6265E-02

  rolling -1.5852E+07  3.9990E+02 -1.6335E+07 -8.8138E+05 -1.5453E+07  0.0000E+00  0.0000E+00  0.0000E+00  0.0000E+00
 averages -1.5862E+07  4.0125E+02  6.7051E+05 -9.7684E+06  1.5436E+07  0.0000E+00  0.0000E+00  0.0000E+00  0.0000E+00
           7.3136E+06  0.0000E+00  0.0000E+00  0.0000E+00  9.0000E+01  9.0000E+01  9.0000E+01  0.0000E+00 -2.0983E-02
 ----------------------------------------------------------------------------------------------------------------------------------
      500 -1.5851E+07  3.9967E+02 -1.6334E+07 -8.8215E+05 -1.5452E+07  0.0000E+00  0.0000E+00  0.0000E+00  0.0000E+00
  1.00000 -1.5860E+07  3.9875E+02  6.7099E+05 -9.7671E+06  1.5434E+07  0.0000E+00  0.0000E+00  0.0000E+00  0.0000E+00
    229.2  7.3129E+06  0.0000E+00  0.0000E+00  0.0000E+00  9.0000E+01  9.0000E+01  9.0000E+01  0.0000E+00 -2.0266E-02

  rolling -1.5852E+07  3.9961E+02 -1.6334E+07 -8.8166E+05 -1.5452E+07  0.0000E+00  0.0000E+00  0.0000E+00  0.0000E+00
 averages -1.5861E+07  4.0090E+02  6.6832E+05 -9.7692E+06  1.5435E+07  0.0000E+00  0.0000E+00  0.0000E+00  0.0000E+00
           7.3133E+06  0.0000E+00  0.0000E+00  0.0000E+00  9.0000E+01  9.0000E+01  9.0000E+01  0.0000E+00 -1.9678E-02
 ----------------------------------------------------------------------------------------------------------------------------------
      550 -1.5851E+07  4.0067E+02 -1.6335E+07 -8.8080E+05 -1.5454E+07  0.0000E+00  0.0000E+00  0.0000E+00  0.0000E+00
  1.10000 -1.5856E+07  4.0167E+02  6.5798E+05 -9.7851E+06  1.5437E+07  0.0000E+00  0.0000E+00  0.0000E+00  0.0000E+00
    252.1  7.3126E+06  0.0000E+00  0.0000E+00  0.0000E+00  9.0000E+01  9.0000E+01  9.0000E+01  0.0000E+00 -1.0492E-02

  rolling -1.5851E+07  3.9984E+02 -1.6334E+07 -8.8199E+05 -1.5452E+07  0.0000E+00  0.0000E+00  0.0000E+00  0.0000E+00
 averages -1.5860E+07  4.0046E+02  6.6987E+05 -9.7681E+06  1.5435E+07  0.0000E+00  0.0000E+00  0.0000E+00  0.0000E+00
           7.3129E+06  0.0000E+00  0.0000E+00  0.0000E+00  9.0000E+01  9.0000E+01  9.0000E+01  0.0000E+00 -2.0146E-02
 ----------------------------------------------------------------------------------------------------------------------------------
      600 -1.5852E+07  3.9949E+02 -1.6334E+07 -8.7814E+05 -1.5456E+07  0.0000E+00  0.0000E+00  0.0000E+00  0.0000E+00
  1.20000 -1.5841E+07  3.9924E+02  6.1274E+05 -9.8184E+06  1.5438E+07  0.0000E+00  0.0000E+00  0.0000E+00  0.0000E+00
    275.0  7.3128E+06  0.0000E+00  0.0000E+00  0.0000E+00  9.0000E+01  9.0000E+01  9.0000E+01  0.0000E+00  2.2635E-02

  rolling -1.5851E+07  4.0005E+02 -1.6334E+07 -8.8033E+05 -1.5454E+07  0.0000E+00  0.0000E+00  0.0000E+00  0.0000E+00
 averages -1.5853E+07  4.0065E+02  6.4819E+05 -9.7906E+06  1.5436E+07  0.0000E+00  0.0000E+00  0.0000E+00  0.0000E+00
           7.3127E+06  0.0000E+00  0.0000E+00  0.0000E+00  9.0000E+01  9.0000E+01  9.0000E+01  0.0000E+00 -3.6819E-03
 ----------------------------------------------------------------------------------------------------------------------------------
      650 -1.5852E+07  4.0086E+02 -1.6335E+07 -8.7951E+05 -1.5456E+07  0.0000E+00  0.0000E+00  0.0000E+00  0.0000E+00
  1.30000 -1.5843E+07  3.9859E+02  6.2021E+05 -9.8052E+06  1.5438E+07  0.0000E+00  0.0000E+00  0.0000E+00  0.0000E+00
    298.0  7.3131E+06  0.0000E+00  0.0000E+00  0.0000E+00  9.0000E+01  9.0000E+01  9.0000E+01  0.0000E+00  1.9909E-02

  rolling -1.5852E+07  4.0008E+02 -1.6334E+07 -8.7867E+05 -1.5456E+07  0.0000E+00  0.0000E+00  0.0000E+00  0.0000E+00
 averages -1.5844E+07  4.0029E+02  6.2088E+05 -9.8128E+06  1.5438E+07  0.0000E+00  0.0000E+00  0.0000E+00  0.0000E+00
           7.3128E+06  0.0000E+00  0.0000E+00  0.0000E+00  9.0000E+01  9.0000E+01  9.0000E+01  0.0000E+00  1.6991E-02
 ----------------------------------------------------------------------------------------------------------------------------------
      700 -1.5852E+07  4.0078E+02 -1.6336E+07 -8.8010E+05 -1.5455E+07  0.0000E+00  0.0000E+00  0.0000E+00  0.0000E+00
  1.40000 -1.5846E+07  4.0012E+02  6.2745E+05 -9.7988E+06  1.5438E+07  0.0000E+00  0.0000E+00  0.0000E+00  0.0000E+00
    321.0  7.3135E+06  0.0000E+00  0.0000E+00  0.0000E+00  9.0000E+01  9.0000E+01  9.0000E+01  0.0000E+00  1.3439E-02

  rolling -1.5852E+07  4.0013E+02 -1.6335E+07 -8.7880E+05 -1.5456E+07  0.0000E+00  0.0000E+00  0.0000E+00  0.0000E+00
 averages -1.5841E+07  3.9980E+02  6.1307E+05 -9.8139E+06  1.5438E+07  0.0000E+00  0.0000E+00  0.0000E+00  0.0000E+00
           7.3131E+06  0.0000E+00  0.0000E+00  0.0000E+00  9.0000E+01  9.0000E+01  9.0000E+01  0.0000E+00  2.3197E-02
 ----------------------------------------------------------------------------------------------------------------------------------
      750 -1.5852E+07  4.0029E+02 -1.6335E+07 -8.8024E+05 -1.5455E+07  0.0000E+00  0.0000E+00  0.0000E+00  0.0000E+00
  1.50000 -1.5848E+07  4.0180E+02  6.3162E+05 -9.7912E+06  1.5437E+07  0.0000E+00  0.0000E+00  0.0000E+00  0.0000E+00
    344.0  7.3138E+06  0.0000E+00  0.0000E+00  0.0000E+00  9.0000E+01  9.0000E+01  9.0000E+01  0.0000E+00  8.4310E-03

  rolling -1.5852E+07  4.0019E+02 -1.6335E+07 -8.7929E+05 -1.5456E+07  0.0000E+00  0.0000E+00  0.0000E+00  0.0000E+00
 averages -1.5842E+07  4.0012E+02  6.1346E+05 -9.8082E+06  1.5438E+07  0.0000E+00  0.0000E+00  0.0000E+00  0.0000E+00
           7.3135E+06  0.0000E+00  0.0000E+00  0.0000E+00  9.0000E+01  9.0000E+01  9.0000E+01  0.0000E+00  2.2824E-02
 ----------------------------------------------------------------------------------------------------------------------------------


 run terminating...  elapsed cpu time:      344.044 sec, job time:     3600.000 sec, close time:       20.000 sec



 sample of final configuration on node zero

        i       x(i)        y(i)        z(i)       vx(i)       vy(i)       vz(i)       fx(i)       fy(i)       fz(i)


        2 -9.6433E+01 -4.9595E+01 -8.1127E+01  3.1893E+00  9.9125E-01 -5.5868E-01  1.0845E+03  8.1132E+01  1.6823E+03
     1150 -1.1768E+02 -5.2732E+01 -6.1513E+01  7.5380E-01 -3.4921E+00 -4.1386E+00 -1.8143E+03 -4.4274E+03  1.6082E+03
     2317 -1.0178E+02 -4.5200E+01 -4.3342E+01 -1.6258E+00 -3.2969E-01  5.8754E+00 -3.7512E+03 -1.0516E+03 -3.8755E+02
     3508 -1.3002E+02 -6.3070E+01 -6.4759E+01  1.0472E+01 -5.2654E+00 -2.6018E+00 -4.5467E+02 -2.9294E+02  8.4643E+01
     4813 -1.2736E+02 -6.3475E+01 -4.8351E+01 -2.1176E+00  1.7995E+00  1.6102E+00 -5.8033E+02  7.5090E+02  2.8226E+02
    21040 -8.9251E+01 -1.4712E+01 -6.6434E+01 -4.3420E+00  8.0482E-01 -1.0244E+00 -5.4465E+01  1.4752E+02  2.8780E+02
    22191 -9.9833E+01 -3.6561E+01 -6.5706E+01 -2.7966E+00 -4.6578E+00  2.6361E-01  9.8192E+02  1.1646E+03  1.6565E+02
    23379 -8.0244E+01 -1.0875E+01 -4.8960E+01  6.7639E+00  6.8316E-01  5.8676E+00  2.0250E+02  5.5373E+02 -3.9584E+01
    24617 -7.1343E+01 -4.2333E+01 -6.8111E+01  5.4709E-01 -1.0036E+00  9.2529E-01 -2.8022E+02  4.6409E+03  3.2301E+03
    81122 -1.0760E+02 -4.5043E+01 -3.9032E+01 -1.6418E-01  2.7302E+00  4.1225E+00 -1.0950E+03 -7.6076E+02  5.8631E+02
    82264 -1.0781E+02 -4.3010E+01 -1.6855E+01  1.5710E+00 -5.0832E+00  2.5326E+00 -7.1078E+01 -4.7048E+02 -2.8920E+02
    83437 -1.2001E+02 -5.0958E+01 -1.9323E+01  2.9605E+00 -2.4378E+00 -1.6129E+00  7.5398E+02  2.5629E+03 -9.4953E+02
    84694 -1.2204E+02 -4.1518E+01 -3.9664E+01 -7.2776E-01 -9.5302E-01 -2.1148E+00 -1.6603E+01 -1.8461E+03 -2.9239E+03
   101045 -8.8606E+01 -3.3945E+01 -2.4771E+00  1.4040E+00 -2.8219E-01  6.4009E-01  3.4297E+02  3.2694E+02 -8.8453E+01
   102182 -1.1453E+02 -2.1448E+01 -1.9907E+01  9.0202E-01  2.7175E-01  6.4678E-01 -8.4852E+02  7.6796E+02  3.1792E+01
   103326 -1.3263E+02 -2.9148E+01 -3.5427E+01  4.0356E-01  2.0242E+00 -1.7308E+00  6.8712E+02  9.7288E+02 -1.6785E+03
   104556 -1.1722E+02 -3.8953E+01 -2.6445E+01 -3.5628E+00 -6.7471E-01  4.8671E+00 -3.8738E+03 -1.6290E+03 -2.0431E+03
   105791 -1.3380E+02 -1.8087E+01 -2.5810E+01 -1.1854E+00  3.6591E+00  2.3911E-01  4.6629E+00 -2.9854E+02  7.0446E+02
   324922 -7.6345E+01 -3.6004E+01 -7.9326E+01  2.9424E-01  1.1240E+00 -5.5043E-01 -2.3207E+03  1.4185E+03 -2.7334E+02
   333140 -7.6139E+01 -2.7332E+01 -3.5949E+01  3.6865E+00 -7.8692E-02 -1.3276E+00  6.3700E+03  3.0014E+03  7.3502E+01


 run terminated after      750 steps (     1.500 ps), final averages calculated over      450 steps (     0.900 ps).


 ----------------------------------------------------------------------------------------------------------------------------------

    steps     eng_tot    temp_tot     eng_cfg     eng_src     eng_cou     eng_bnd     eng_ang     eng_dih     eng_tet
 time(ps)      eng_pv    temp_rot     vir_cfg     vir_src     vir_cou     vir_bnd     vir_ang     vir_con     vir_tet
 cpu  (s)      volume    temp_shl     eng_shl     vir_shl       alpha        beta       gamma     vir_pmf       press

 ----------------------------------------------------------------------------------------------------------------------------------
      450 -1.5852E+07  4.0003E+02 -1.6335E+07 -8.8051E+05 -1.5454E+07  0.0000E+00  0.0000E+00  0.0000E+00  0.0000E+00
  0.90000 -1.5853E+07  4.0050E+02  6.4658E+05 -9.7859E+06  1.5437E+07  0.0000E+00  0.0000E+00  0.0000E+00  0.0000E+00
    344.9  7.3133E+06  0.0000E+00  0.0000E+00  0.0000E+00  9.0000E+01  9.0000E+01  9.0000E+01  0.0000E+00 -2.4419E-03

  r.m.s.   3.3806E+02  4.8634E-01  7.0270E+02  1.5380E+03  1.5945E+03  0.0000E+00  0.0000E+00  0.0000E+00  0.0000E+00
 fluctn.   9.7100E+03  1.2383E+00  2.8683E+04  2.4101E+04  1.5782E+03  0.0000E+00  0.0000E+00  0.0000E+00  0.0000E+00
           4.9634E+02  0.0000E+00  0.0000E+00  0.0000E+00  0.0000E+00  0.0000E+00  0.0000E+00  0.0000E+00  2.1653E-02
 ----------------------------------------------------------------------------------------------------------------------------------


            Approximate 3D Diffusion Coefficients and square root of MSDs

            atom         DC (10^-9 m^2 s^-1)   Sqrt[MSD] (Ang)

            N                 1.2687E+00          9.3387E-01
            C1                1.1200E+00          8.9350E-01
            C2                1.7814E+00          1.1014E+00
            C4                2.0284E+00          1.2145E+00
            H1                1.6536E+00          1.1291E+00
            H2                2.8163E+00          1.4085E+00
            Cl                9.1293E-01          8.7782E-01


                Average pressure tensor  (katms)                              r.m.s. fluctuations

          -5.2499E-03  8.8604E-02  3.7970E-02                          3.1305E-02  2.0314E-02  2.0101E-02
           8.8604E-02 -1.0095E-01  6.4495E-02                          2.0314E-02  2.3106E-02  2.7851E-02
           3.7970E-02  6.4495E-02  9.8878E-02                          2.0101E-02  2.7851E-02  3.1765E-02

            trace/3   -2.4419E-03


                Average cell vectors     (Angs)                               r.m.s. fluctuations 

      277.7755859938        0.0000000000        0.0000000000           6.2840E-03  0.0000E+00  0.0000E+00
        0.0000000000      160.3738006448        0.0000000000           0.0000E+00  3.6280E-03  0.0000E+00
        0.0000000000        0.0000000000      164.1676377026           0.0000E+00  0.0000E+00  3.7139E-03



 time elapsed since job start:      344.919 sec



 *************************************************************************************************************************
 **************                                                                                             **************
 **************  Thank you for using the DL_POLY_4 package in your work.  Please, acknowledge our efforts   **************
 **************                                                                                             **************
 **************  by including the following reference when publishing data obtained using DL_POLY_4:        **************
 **************                                                                                             **************
 **************  I.T. Todorov, W. Smith, K. Trachenko & M.T. Dove, `J. Mater. Chem.', 16, 1911-1918 (2006)  **************
 **************                                                                                             **************
 *************************************************************************************************************************

